 *********************************************************
 *                                                       *
 *                  WELCOME TO ABACUS                    *
 *                                                       *
 *            'Atomic-orbital Based Ab-initio            *
 *                  Computation at UStc'                 *
 *                                                       *
 *          Website: http://abacus.ustc.edu.cn/          *
 *                                                       *
 *********************************************************
 Mon Sep 26 18:01:52 2022
 MAKE THE DIR         : OUT.ABACUS/
 UNIFORM GRID DIM     : 36 * 36 * 36
 UNIFORM GRID DIM(BIG): 18 * 18 * 18
 DONE(0.0590239  SEC) : SETUP UNITCELL
 DONE(0.0613582  SEC) : INIT K-POINTS
 ---------------------------------------------------------
 Self-consistent calculations for electrons
 ---------------------------------------------------------
 SPIN    KPOINTS         PROCESSORS  NBASE       
 1       Gamma           2           26          
 ---------------------------------------------------------
 Use Systematically Improvable Atomic bases
 ---------------------------------------------------------
 ELEMENT ORBITALS        NBASE       NATOM       XC          
 Si      2s2p1d-8au      13          2           
 ---------------------------------------------------------
 Initial plane wave basis and FFT box
 ---------------------------------------------------------
 DONE(0.964385   SEC) : INIT CHARGE
 START POTENTIAL      : atomic
 DONE(0.983639   SEC) : INIT POTENTIAL
 -------------------------------------------
 SELF-CONSISTENT : 
 -------------------------------------------
 ITER   ETOT(eV)       EDIFF(eV)      DRHO       TIME(s)    
 GE1    -1.958212e+02  0.000000e+00   3.613e-01  1.447e+00  
 GE2    -1.958320e+02  -1.080743e-02  9.243e-02  1.363e+00  
 GE3    -1.958407e+02  -8.669667e-03  5.188e-03  1.371e+00  
 GE4    -1.958407e+02  -2.981713e-05  1.913e-04  1.434e+00  
 GE5    -1.958407e+02  -6.798932e-08  1.671e-05  1.408e+00  
 GE6    -1.958407e+02  1.119078e-08   1.194e-07  1.375e+00  
 GE7    -1.958407e+02  -2.874127e-10  2.521e-08  1.417e+00  

  |CLASS_NAME---------|NAME---------------|TIME(Sec)-----|CALLS----|AVG------|PER%-------
                       total               11.128         9         1.2       1e+02     %
   Driver              driver_line         11.108         1         11        1e+02     %
   ORB_control         set_orb_tables      0.78472        1         0.78      7.1       %
   ORB_gen_tables      gen_tables          0.78471        1         0.78      7.1       %
   ORB_table_phi       init_Table          0.46983        1         0.47      4.2       %
   ORB_table_phi       cal_ST_Phi12_R      0.46509        70        0.0066    4.2       %
   ESolver_KS_LCAO     Run                 10.141         1         10        91        %
   ESolver_KS_LCAO     beforescf           0.30079        1         0.3       2.7       %
   ESolver_KS_LCAO     beforesolver        0.30043        1         0.3       2.7       %
   ESolver_KS_LCAO     set_matrix_grid     0.13195        1         0.13      1.2       %
   Grid_Technique      init                0.13129        1         0.13      1.2       %
   LCAO_Hamilt         set_lcao_matrices   0.16806        1         0.17      1.5       %
   LCAO_gen_fixedH     build_Nonlocal_beta_new0.14346        1         0.14      1.3       %
   HSolverLCAO         solve               9.7383         7         1.4       88        %
   HamiltLCAO          updateHk            5.1204         7         0.73      46        %
   LCAO_Hamilt         cal_Hgamma          5.1193         7         0.73      46        %
   Gint_interface      cal_gint            9.6888         14        0.69      87        %
   Gint_Gamma          distri_vl           4.2468         4         1.1       38        %
   ElecStateLCAO       psiToRho            4.5801         7         0.65      41        %
 ----------------------------------------------------------------------------------------

 START  Time  : Mon Sep 26 18:01:52 2022
 FINISH Time  : Mon Sep 26 18:02:04 2022
 TOTAL  Time  : 12
 SEE INFORMATION IN : OUT.ABACUS/
