64   
2    

1    
  0.0200000000000000   0.0000000000000000   0.0000000000000000
  -0.0185537138    0.0000000000    0.0000000000
   0.0016310833    0.0000000000    0.0000000000
   0.0010278690    0.0000000000    0.0000000000
  -0.0009026587    0.0000000000    0.0000000000
   0.0010278690    0.0000000000    0.0000000000
  -0.0009026587    0.0000000000    0.0000000000
   0.0008526393    0.0000000000    0.0000000000
  -0.0008577286    0.0000000000    0.0000000000
   0.0005406892   -0.0000038693   -0.0000038693
  -0.0007466168    0.0000000000    0.0000000000
   0.0005406892    0.0000038693   -0.0000038693
  -0.0007466168    0.0000000000    0.0000000000
   0.0005406892   -0.0000038693    0.0000038693
  -0.0007466168    0.0000000000    0.0000000000
   0.0005406892    0.0000038693    0.0000038693
  -0.0007466168    0.0000000000    0.0000000000
   0.0006294893    0.0000000000    0.0018322079
   0.0006330235    0.0000000000   -0.0018312896
  -0.0000075135    0.0000000000   -0.0000281788
  -0.0000136891    0.0000000000    0.0000272308
   0.0006294893    0.0000000000   -0.0018322079
   0.0006330235    0.0000000000    0.0018312896
  -0.0000075135    0.0000000000    0.0000281788
  -0.0000136891    0.0000000000   -0.0000272308
   0.0006294893    0.0018322079    0.0000000000
   0.0006330235   -0.0018312896    0.0000000000
   0.0006294893   -0.0018322079    0.0000000000
   0.0006330235    0.0018312896    0.0000000000
  -0.0000075135   -0.0000281788    0.0000000000
  -0.0000136891    0.0000272308    0.0000000000
  -0.0000075135    0.0000281788    0.0000000000
  -0.0000136891   -0.0000272308    0.0000000000
  -0.0001148757   -0.0005605564   -0.0005605564
  -0.0001245778    0.0005583112    0.0005583112
  -0.0001148757    0.0005605564   -0.0005605564
  -0.0001245778   -0.0005583112    0.0005583112
  -0.0001148757   -0.0005605564    0.0005605564
  -0.0001245778    0.0005583112   -0.0005583112
  -0.0001148757    0.0005605564    0.0005605564
  -0.0001245778   -0.0005583112   -0.0005583112
   0.0049196015    0.0000000000    0.0000000000
   0.0044717998    0.0000000000    0.0000000000
   0.0000602802    0.0000000000    0.0000000000
   0.0000510201    0.0000000000    0.0000000000
   0.0000602802    0.0000000000    0.0000000000
   0.0000510201    0.0000000000    0.0000000000
   0.0000056123    0.0000000000    0.0000000000
  -0.0000013711    0.0000000000    0.0000000000
   0.0029042630   -0.0000113765    0.0000000000
  -0.0019221206   -0.0000042411    0.0000000000
   0.0029042630    0.0000113765    0.0000000000
  -0.0019221206    0.0000042411    0.0000000000
   0.0009642068    0.0000014326    0.0000000000
  -0.0009775143   -0.0000003429    0.0000000000
   0.0009642068   -0.0000014326    0.0000000000
  -0.0009775143    0.0000003429    0.0000000000
   0.0029042630    0.0000000000   -0.0000113765
  -0.0019221206    0.0000000000   -0.0000042411
   0.0009642068    0.0000000000    0.0000014326
  -0.0009775143    0.0000000000   -0.0000003429
   0.0029042630    0.0000000000    0.0000113765
  -0.0019221206    0.0000000000    0.0000042411
   0.0009642068    0.0000000000   -0.0000014326
  -0.0009775143    0.0000000000    0.0000003429

33   
  0.0200000000000000   0.0000000000000000   0.0000000000000000
  -0.0000765572   -0.0003825412   -0.0003825412
  -0.0000777600    0.0003850064    0.0003850064
  -0.0000765572    0.0003825412   -0.0003825412
  -0.0000777600   -0.0003850064    0.0003850064
  -0.0000765572   -0.0003825412    0.0003825412
  -0.0000777600    0.0003850064   -0.0003850064
  -0.0000765572    0.0003825412    0.0003825412
  -0.0000777600   -0.0003850064   -0.0003850064
   0.0045123828    0.0000000000   -0.0000000000
   0.0051000905    0.0000000000   -0.0000000000
   0.0000937325    0.0000000000   -0.0000000000
   0.0000912610    0.0000000000   -0.0000000000
   0.0000937325    0.0000000000   -0.0000000000
   0.0000912610    0.0000000000   -0.0000000000
   0.0000347804    0.0000000000   -0.0000000000
   0.0000318423    0.0000000000   -0.0000000000
   0.0007911275    0.0000084470   -0.0000000000
   0.0001984706    0.0000021786   -0.0000000000
   0.0007911275   -0.0000084470   -0.0000000000
   0.0001984706   -0.0000021786   -0.0000000000
  -0.0007696414    0.0000005869   -0.0000000000
   0.0008078067    0.0000008575   -0.0000000000
  -0.0007696414   -0.0000005869   -0.0000000000
   0.0008078067   -0.0000008575   -0.0000000000
   0.0007911275    0.0000000000    0.0000084470
   0.0001984706    0.0000000000    0.0000021786
  -0.0007696414    0.0000000000    0.0000005869
   0.0008078067    0.0000000000    0.0000008575
   0.0007911275    0.0000000000   -0.0000084470
   0.0001984706    0.0000000000   -0.0000021786
  -0.0007696414    0.0000000000   -0.0000005869
   0.0008078067    0.0000000000   -0.0000008575
  -0.0284083178    0.0000000000   -0.0000000000
   0.0024329549    0.0000000000   -0.0000000000
  -0.0013210584    0.0000000000   -0.0000000000
   0.0015230756    0.0000000000   -0.0000000000
  -0.0013210584    0.0000000000   -0.0000000000
   0.0015230756    0.0000000000   -0.0000000000
  -0.0008410734    0.0000000000   -0.0000000000
   0.0009127394    0.0000000000   -0.0000000000
  -0.0016792124    0.0000048181    0.0000048181
   0.0013834168    0.0000000000   -0.0000000000
  -0.0016792124   -0.0000048181    0.0000048181
   0.0013834168    0.0000000000   -0.0000000000
  -0.0016792124    0.0000048181   -0.0000048181
   0.0013834168    0.0000000000   -0.0000000000
  -0.0016792124   -0.0000048181   -0.0000048181
   0.0013834168    0.0000000000   -0.0000000000
   0.0016174275    0.0000000000    0.0023598683
   0.0016247982    0.0000000000   -0.0023823089
   0.0000238082    0.0000000000    0.0002598653
   0.0000189604    0.0000000000   -0.0002601587
   0.0016174275    0.0000000000   -0.0023598683
   0.0016247982    0.0000000000    0.0023823089
   0.0000238082    0.0000000000   -0.0002598653
   0.0000189604    0.0000000000    0.0002601587
   0.0016174275    0.0023598683   -0.0000000000
   0.0016247982   -0.0023823089   -0.0000000000
   0.0016174275   -0.0023598683   -0.0000000000
   0.0016247982    0.0023823089   -0.0000000000
   0.0000238082    0.0002598653   -0.0000000000
   0.0000189604   -0.0002601587   -0.0000000000
   0.0000238082   -0.0002598653   -0.0000000000
   0.0000189604    0.0002601587   -0.0000000000
