 *********************************************************
 *                                                       *
 *                  WELCOME TO ABACUS                    *
 *                                                       *
 *            'Atomic-orbital Based Ab-initio            *
 *                  Computation at UStc'                 *
 *                                                       *
 *          Website: http://abacus.ustc.edu.cn/          *
 *                                                       *
 *********************************************************
 Tue Sep 20 21:19:39 2022
 MAKE THE DIR         : OUT.autotest/
 UNIFORM GRID DIM     : 24 * 24 * 24
 UNIFORM GRID DIM(BIG): 12 * 12 * 12
 DONE(0.0113376  SEC) : SETUP UNITCELL
 DONE(0.0116684  SEC) : INIT K-POINTS
 ---------------------------------------------------------
 Self-consistent calculations for electrons
 ---------------------------------------------------------
 SPIN    KPOINTS         PROCESSORS  NBASE       
 1       8               4           26          
 ---------------------------------------------------------
 Use Systematically Improvable Atomic bases
 ---------------------------------------------------------
 ELEMENT ORBITALS        NBASE       NATOM       XC          
 Si      2s2p1d-8au      13          2           
 ---------------------------------------------------------
 Initial plane wave basis and FFT box
 ---------------------------------------------------------
 DONE(0.011981   SEC) : INIT CHARGE
 START POTENTIAL      : atomic
 DONE(0.0153058  SEC) : INIT POTENTIAL
 -------------------------------------------
 SELF-CONSISTENT : 
 -------------------------------------------
 ITER   ETOT(eV)       EDIFF(eV)      DRHO       TIME(s)    
 GE1    -2.116640e+02  0.000000e+00   2.126e-01  1.539e-01  
 !! CONVERGENCE HAS NOT BEEN ACHIEVED !!

  |CLASS_NAME---------|NAME---------------|TIME(Sec)-----|CALLS----|AVG------|PER%-------
                       total               0.57158        9         0.064     1e+02     %
   Driver              driver_line         0.56544        1         0.57      99        %
   ORB_control         set_orb_tables      0.32599        1         0.33      57        %
   ORB_gen_tables      gen_tables          0.32599        1         0.33      57        %
   ORB_table_phi       init_Table          0.18204        1         0.18      32        %
   ORB_table_phi       cal_ST_Phi12_R      0.17887        70        0.0026    31        %
   ESolver_KS_LCAO     Run                 0.20126        1         0.2       35        %
   HSolverLCAO         solve               0.1514         1         0.15      26        %
   Gint_interface      cal_gint            0.11281        2         0.056     20        %
 ----------------------------------------------------------------------------------------

 START  Time  : Tue Sep 20 21:19:39 2022
 FINISH Time  : Tue Sep 20 21:19:40 2022
 TOTAL  Time  : 1
 SEE INFORMATION IN : OUT.autotest/
