 *********************************************************
 *                                                       *
 *                  WELCOME TO ABACUS                    *
 *                                                       *
 *            'Atomic-orbital Based Ab-initio            *
 *                  Computation at UStc'                 *
 *                                                       *
 *          Website: http://abacus.ustc.edu.cn/          *
 *                                                       *
 *********************************************************
 Tue Sep 20 21:20:07 2022
 MAKE THE DIR         : OUT.autotest/
 UNIFORM GRID DIM     : 48 * 48 * 48
 UNIFORM GRID DIM(BIG): 24 * 24 * 24
 DONE(0.0127263  SEC) : SETUP UNITCELL
 DONE(0.0393327  SEC) : SYMMETRY
 DONE(0.0396642  SEC) : INIT K-POINTS
 ---------------------------------------------------------
 Self-consistent calculations for electrons
 ---------------------------------------------------------
 SPIN    KPOINTS         PROCESSORS  NBASE       
 1       Gamma           4           26          
 ---------------------------------------------------------
 Use Systematically Improvable Atomic bases
 ---------------------------------------------------------
 ELEMENT ORBITALS        NBASE       NATOM       XC          
 Si      2s2p1d-8au      13          2           
 ---------------------------------------------------------
 Initial plane wave basis and FFT box
 ---------------------------------------------------------
 DONE(0.0408304  SEC) : INIT CHARGE
 START POTENTIAL      : atomic
 DONE(0.0570292  SEC) : INIT POTENTIAL
 -------------------------------------------
 SELF-CONSISTENT : 
 -------------------------------------------
 ITER   ETOT(eV)       EDIFF(eV)      DRHO       TIME(s)    
 GE1    -2.045920e+02  0.000000e+00   4.776e-02  7.145e-02  
 GE2    -2.045948e+02  -2.791223e-03  2.363e-02  6.602e-02  
 GE3    -2.045956e+02  -7.242672e-04  4.853e-03  6.557e-02  
 GE4    -2.045956e+02  -1.398773e-05  6.280e-04  6.508e-02  
 GE5    -2.045956e+02  1.200534e-06   1.575e-04  6.556e-02  
 GE6    -2.045956e+02  -2.659126e-07  5.982e-05  6.539e-02  
 GE7    -2.045956e+02  -1.330899e-06  2.846e-05  6.511e-02  
 GE8    -2.045956e+02  -4.064424e-08  8.436e-06  6.609e-02  
 GE9    -2.045956e+02  2.252738e-08   5.484e-06  6.504e-02  
 GE10   -2.045956e+02  -4.183000e-09  4.267e-06  6.500e-02  
 GE11   -2.045956e+02  3.056382e-09   1.698e-07  6.532e-02  
 GE12   -2.045956e+02  5.512852e-11   3.312e-08  6.560e-02  
 GE13   -2.045956e+02  1.751255e-10   1.432e-08  6.552e-02  
 GE14   -2.045956e+02  1.802734e-10   2.439e-09  6.311e-02  

  |CLASS_NAME---------|NAME---------------|TIME(Sec)-----|CALLS----|AVG------|PER%-------
                       total               1.3496         11        0.12      1e+02     %
   Driver              driver_line         1.3435         1         1.3       1e+02     %
   Potential           v_of_rho            0.15492        15        0.01      11        %
   XC_Functional       v_xc                0.14348        15        0.0096    11        %
   ORB_control         set_orb_tables      0.32322        1         0.32      24        %
   ORB_gen_tables      gen_tables          0.32322        1         0.32      24        %
   ORB_table_phi       init_Table          0.18074        1         0.18      13        %
   ORB_table_phi       cal_ST_Phi12_R      0.17755        70        0.0025    13        %
   ESolver_KS_LCAO     Run                 0.94166        1         0.94      70        %
   HSolverLCAO         solve               0.66222        14        0.047     49        %
   HamiltLCAO          updateHk            0.28304        14        0.02      21        %
   LCAO_Hamilt         cal_Hgamma          0.28093        14        0.02      21        %
   Gint_interface      cal_gint            0.61079        28        0.022     45        %
   Gint_Gamma          distri_vl           0.46448        7         0.066     34        %
   ElecStateLCAO       psiToRho            0.34519        14        0.025     26        %
 ----------------------------------------------------------------------------------------

 START  Time  : Tue Sep 20 21:20:07 2022
 FINISH Time  : Tue Sep 20 21:20:09 2022
 TOTAL  Time  : 2
 SEE INFORMATION IN : OUT.autotest/
